30
 energy: -71.631628100949 gnorm: 0.000453717744 xtb: 6.5.1 (conda-forge)
O            3.36376972325838        0.94538106796009        3.62843412375589
N            3.15182524047311        0.85919247170624        2.47138723148123
O            3.77754312224023        0.06144087692038        1.74443073620899
O            2.29486508891534        1.55691646021189        1.89768543503311
O            1.05018277875209       -2.66235262563239        0.15688906036139
N            0.58994916460276       -1.65479992708487        0.59853956646625
O            1.39978090226938       -0.60273468343912        0.62136823452992
O           -0.50711030127813       -1.49775034222783        1.03133782754049
O            1.76736688391571        1.68223433101875       -0.86324635953740
N            2.76636483296281        2.43299095056438       -0.90124836170050
O            2.77522269957789        3.43578776711375       -1.52077083355032
O            3.75650185616199        2.04008586631222       -0.25559258363365
Al           2.66072209627626        0.53736604517595        0.30657669150679
O            3.53020268313223       -0.45440660611844       -0.96166075220672
C            4.69014128461458       -0.86574641296485       -1.66509101439296
C            3.48573312799344       -1.70523891229049       -1.64919622138472
C            2.56420378802856       -1.80717749547924       -2.80984387732830
C            2.26374604642229       -0.70237119444300       -3.60013234246870
C            1.39429171793542       -0.82735512453238       -4.66882211332874
C            0.82390645231716       -2.05561211590661       -4.96068251735486
C            1.11991452221138       -3.15886506050465       -4.17641545339237
C            1.98324987858646       -3.03706383262090       -3.10211926451815
H            5.53322236582020       -1.11498259489958       -1.03335692522562
H            4.91099588086256       -0.27623659337538       -2.54808492468613
H            3.46396855171339       -2.56199136765501       -0.98257882654981
H            2.69203774479943        0.26391698628297       -3.37629287797058
H            1.16125994108925        0.03654307689353       -5.27230860597421
H            0.14623712091342       -2.15057274954368       -5.79527554302022
H            0.67167631409382       -4.11539579419143       -4.39661551642317
H            2.20102849134321       -3.89106246725882       -2.48032399229301
