42
 energy: -59.120273644540 gnorm: 0.001842584023 xtb: 6.5.1 (conda-forge)
C            1.68589898247121        3.71721187686771        0.81319219041935
C            1.55506170599859        2.84963349281073       -0.43210292971952
O            2.26450417391986        1.65700434941942       -0.29880414907483
C            2.99388775552268       -3.33677670434630        1.83475923876468
C            2.25081751810176       -2.65080076471921        0.77120816832833
O            2.47529101230520       -1.51530765844844        0.38809085847726
C           -1.29995464933402       -1.58172534287223       -0.21852066804087
C           -0.78626373655561       -0.24778274774597       -0.64208032499042
O           -1.43696918261561        0.75963907815601       -0.72244481710871
Al           2.80626131568365        0.28506275856516        0.47770148292438
O            4.14747925032136       -0.13203112059500       -0.77269162626428
C            4.91479014728660        0.59003574115227       -1.69945846674541
C            4.76568609490370       -0.86789576401081       -1.80357194171874
C            3.89674532763643       -1.48899987447766       -2.83837638652636
C            2.60329206035478       -1.02486586686081       -3.04852968759948
C            1.80892890663258       -1.59989580649448       -4.02467197778695
C            2.30158253239299       -2.63814233295099       -4.79940775518146
C            3.59028480943598       -3.10369069725592       -4.59266991565210
C            4.38705862427658       -2.53464573751220       -3.61428112520150
H            1.07043369771320        4.60733545553222        0.72061265190783
H            2.72447074627570        4.00020897688458        0.96454451070722
H            1.36177330189440        3.13477257910372        1.67170151180079
H            1.94891443713546        3.39017672164457       -1.30811804256335
H            0.49505878206358        2.62314780648216       -0.60573371630845
H            3.79265632336050       -2.70767592463190        2.21808461477222
H            3.37404990123134       -4.29034070600719        1.46554729842185
H            2.29508142863159       -3.57221341482262        2.63792355909430
H            3.77986405262085        0.53398883357416        1.64120095591151
H            1.44393512593381       -3.22421392689548        0.28961617808495
H           -0.80613754937366       -1.81982019628381        0.72178092313699
H           -1.02869978233355       -2.33709856835567       -0.95215814515350
H           -2.37625869138784       -1.55537883366434       -0.07073626810898
H            0.29746334640061       -0.24087810474298       -0.87675057529958
H            1.06283643778180       -0.06102618783282        1.73521193910825
H            5.82497673640346        1.01755918711022       -1.29751199656632
H            4.34594690198170        1.22939853483614       -2.36221491047767
H            5.59550474249004       -1.48443380057479       -1.46345576423400
H            2.21522554019277       -0.22045603919894       -2.43372078956567
H            0.80552158388921       -1.23317650912109       -4.18075595119819
H            1.68024132749537       -3.08292185082336       -5.56159730201733
H            3.97589552275411       -3.91230975384400       -5.19442655402374
H            5.39163343825299       -2.89605115567039       -3.45448429405603
