21
 energy: -40.221645048275 gnorm: 0.000623962957 xtb: 6.5.1 (conda-forge)
Cl           1.89393785710759       -1.10654567857942       -3.72656351672106
Al           3.02007534052427        0.63245980063917       -3.82635881063700
Cl           5.02188182476224        0.26177901735218       -4.24192001339554
Cl           2.20853170547130        2.28160528398266       -4.76578232153850
O            3.09054856837546        1.20020527764152       -2.03994897017036
C            3.10130045364190        0.73413902765641       -0.70228487804092
C            2.75210516568138        2.12597279021630       -1.01804756600799
C            1.35215915030789        2.62030422040936       -0.95414843125111
C            1.08265048849167        3.81320378784595       -0.29058013553964
C           -0.21643604230122        4.28282723277885       -0.21049576930108
C           -1.25042799097428        3.57271813483283       -0.79906738340335
C           -0.98387899560706        2.38715126246285       -1.46485841623120
C            0.31165161709735        1.90740520303614       -1.53888670614790
H            4.08542061507554        0.49139417223703       -0.31870807468941
H            2.30966461015111        0.03300037199617       -0.46453270553140
H            3.51531646498330        2.88556569428575       -0.86157235527975
H            1.88865724049352        4.36993125871624        0.16329700601250
H           -0.42131616697137        5.20802959426872        0.30659654007545
H           -2.26232253809881        3.94440387012544       -0.74305980332974
H           -1.78491670828896        1.83312947100390       -1.93014346614228
H            0.51470734009423        0.98849020708749       -2.07406422274270
