21
 energy: -40.853299566813 gnorm: 0.000587376750 xtb: 6.5.1 (conda-forge)
F            2.61165632650111       -0.71547073113353        1.05643978755785
B            3.78572880179852       -0.77167816530021        0.37467540184613
F            4.39887364550256        0.43938460366640        0.30671283257491
F            4.60798446299343       -1.75745409767161        0.80730465513228
O            3.47357230497881       -1.11730275215880       -1.15974209994296
C            2.25047078810826       -0.74574405979388       -1.78742035174579
C            2.59470609232174       -2.16107841174140       -1.62513938335158
C            1.92485869187890       -3.05396956546756       -0.63861312428798
C            0.57559396675181       -2.90837896430399       -0.33827058796964
C           -0.02443897683762       -3.75888277569165        0.57427962024456
C            0.71703549043177       -4.75015133712759        1.19474149270433
C            2.06147554506243       -4.89890679026476        0.89492733914048
C            2.66438924775066       -4.06050798313180       -0.02529615293406
H            2.39512820839362       -0.25089767180892       -2.74008697954822
H            1.51975930231864       -0.30285399412193       -1.12148627342829
H            3.04863066492055       -2.67102867413492       -2.47369487314101
H           -0.00735956247605       -2.14039582311936       -0.82262325857696
H           -1.07244376736085       -3.64234627583365        0.80410161108205
H            0.24849643990012       -5.40681661841223        1.91205166708877
H            2.64365142592914       -5.66870592618801        1.37783982142826
H            3.71473090113238       -4.16568398626060       -0.25140114387305
