21
 energy: -40.309725894051 gnorm: 0.000214738526 xtb: 6.5.1 (conda-forge)
Cl           1.43070197338228       -3.38775087334175        0.95267640683964
In           2.39737302108727       -1.35711703366196        0.40943329320029
Cl           3.33999591011078       -1.03977940023120       -1.68241850651181
Cl           1.31494505650439        0.49612209663148        1.29277805918060
O            4.25405528601226       -0.93010622131037        1.90672169612882
C            5.23475704369661        0.00363427024048        1.49419395235985
C            5.57058697125545       -1.40437288936841        1.69865592615613
C            5.79601528796762       -2.32682824594066        0.54766349876169
C            6.68603066286555       -1.99445750993664       -0.46695889920374
C            6.87473694176804       -2.86347574675150       -1.52799905178425
C            6.17648031312793       -4.05880245439601       -1.58330693682981
C            5.29465169512808       -4.39570256393702       -0.56922453477765
C            5.10789892015012       -3.53537491730562        0.49999724787636
H            5.48858281301695        0.73999547662794        2.24889921825511
H            5.12399288526557        0.37283990797157        0.47911687581062
H            6.06302123211510       -1.68555507266017        2.63082185221078
H            7.22800010871865       -1.06137233022315       -0.42164137322954
H            7.56320327064965       -2.60276530189212       -2.31751559711376
H            6.31982646227077       -4.72971297992849       -2.41696114046067
H            4.75537339106025       -5.33056532331463       -0.60447113824200
H            4.44022075384150       -3.80431288726024        1.31159915138122
