26
 energy: -61.035257230334 gnorm: 0.000892555765 xtb: 6.5.1 (conda-forge)
O           -0.25592752424129        0.78706206238461        1.63463361642536
S            0.76989270413028        0.21794996659863        0.81473452308317
O            0.84310747098852       -1.23066009596287        0.79000753085316
O            0.94250461906984        0.81788176201438       -0.49750383092672
C            2.39499760817173        0.67886639251344        1.66454039284115
F            3.14899783973485        1.45176083749496        0.86908014993504
F            2.22406943079865        1.32923367783173        2.81470796422451
F            3.13565601907089       -0.41075185216227        1.92344504177171
Ag           2.55700594837323       -0.81891836219797       -0.72080944701584
O            5.06108432631912       -0.38923038317150       -0.97787229204907
C            5.19451058956037        0.61865747567604       -1.95937430755347
C            5.04582561595125       -0.78901916663637       -2.33438544220355
C            3.71527196724270       -1.32678247097420       -2.76604004401596
C            2.91102488036444       -0.66841919177224       -3.70616650066981
C            1.69276165135583       -1.21962867076419       -4.08199687450097
C            1.26018246747446       -2.41851026105090       -3.52999939428470
C            2.05136243129997       -3.09499770741849       -2.60942297377347
C            3.28534178898395       -2.56227062964572       -2.21725225567576
H            6.17890023741507        1.07151114002670       -1.99833568133443
H            4.34650047381734        1.29151590275172       -2.05117854897646
H            5.92713203773041       -1.34814402771043       -2.64084740505987
H            3.27105405556233        0.23292324256525       -4.18165594833599
H            1.09250402698711       -0.72344432633656       -4.82951289371634
H            0.32206014828331       -2.84760773720785       -3.84741920845953
H            1.74880986428438       -4.06623634982820       -2.24387931719192
H            3.98021932127135       -3.15795122701426       -1.63025685339025
